
Host: MacBook-Pro-7.local

Timers On : Sun Jun  1 17:41:12 2025
Timers Off: Sun Jun  1 17:41:13 2025

Wall Time:        1.00 seconds

                                                       Time (seconds)
Module                                       User      System        Wall        Calls

--------------------------------------------------------------------------------------

**************************************************************************************

Host: MacBook-Pro-7.local

Timers On : Sun Jun  1 17:41:47 2025
Timers Off: Sun Jun  1 17:41:47 2025

Wall Time:        0.67 seconds

                                                       Time (seconds)
Module                                       User      System        Wall        Calls

--------------------------------------------------------------------------------------

**************************************************************************************

Host: MacBook-Pro-7.local

Timers On : Sun Jun  1 17:43:57 2025
Timers Off: Sun Jun  1 17:43:57 2025

Wall Time:        0.57 seconds

                                                       Time (seconds)
Module                                       User      System        Wall        Calls

--------------------------------------------------------------------------------------

**************************************************************************************

Host: MacBook-Pro-7.local

Timers On : Sun Jun  1 17:44:05 2025
Timers Off: Sun Jun  1 17:44:06 2025

Wall Time:        0.68 seconds

                                                       Time (seconds)
Module                                       User      System        Wall        Calls

--------------------------------------------------------------------------------------

**************************************************************************************

Host: MacBook-Pro-7.local

Timers On : Mon Jun  2 10:08:57 2025
Timers Off: Mon Jun  2 10:08:59 2025

Wall Time:        1.87 seconds

                                                       Time (seconds)
Module                                       User      System        Wall        Calls

--------------------------------------------------------------------------------------

**************************************************************************************

Host: MacBook-Pro-7.local

Timers On : Mon Jun  2 10:09:31 2025
Timers Off: Mon Jun  2 10:09:32 2025

Wall Time:        0.97 seconds

                                                       Time (seconds)
Module                                       User      System        Wall        Calls

--------------------------------------------------------------------------------------

**************************************************************************************

Host: MacBook-Pro-7.local

Timers On : Mon Jun  2 10:09:32 2025
Timers Off: Mon Jun  2 10:09:33 2025

Wall Time:        0.59 seconds

                                                       Time (seconds)
Module                                       User      System        Wall        Calls

--------------------------------------------------------------------------------------

**************************************************************************************

Host: MacBook-Pro-7.local

Timers On : Mon Jun  2 10:09:33 2025
Timers Off: Mon Jun  2 10:09:34 2025

Wall Time:        0.65 seconds

                                                       Time (seconds)
Module                                       User      System        Wall        Calls

--------------------------------------------------------------------------------------

**************************************************************************************

Host: MacBook-Pro-7.local

Timers On : Mon Jun  2 10:09:34 2025
Timers Off: Mon Jun  2 10:09:35 2025

Wall Time:        0.73 seconds

                                                       Time (seconds)
Module                                       User      System        Wall        Calls

--------------------------------------------------------------------------------------

**************************************************************************************

Host: MacBook-Pro-7.local

Timers On : Mon Jun  2 10:09:48 2025
Timers Off: Mon Jun  2 10:09:49 2025

Wall Time:        0.89 seconds

                                                       Time (seconds)
Module                                       User      System        Wall        Calls

--------------------------------------------------------------------------------------

**************************************************************************************

Host: MacBook-Pro-7.local

Timers On : Mon Jun  2 18:47:39 2025
Timers Off: Mon Jun  2 18:47:40 2025

Wall Time:        1.10 seconds

                                                       Time (seconds)
Module                                       User      System        Wall        Calls

--------------------------------------------------------------------------------------

**************************************************************************************
