
Host: MacBook-Pro-7.local

Timers On : Sun Jun  1 17:28:01 2025
Timers Off: Sun Jun  1 17:28:11 2025

Wall Time:        9.99 seconds

                                                       Time (seconds)
Module                                       User      System        Wall        Calls

--------------------------------------------------------------------------------------

**************************************************************************************

Host: MacBook-Pro-7.local

Timers On : Sun Jun  1 17:28:47 2025
Timers Off: Sun Jun  1 17:28:48 2025

Wall Time:        1.22 seconds

                                                       Time (seconds)
Module                                       User      System        Wall        Calls

--------------------------------------------------------------------------------------

**************************************************************************************

Host: MacBook-Pro-7.local

Timers On : Sun Jun  1 17:29:13 2025
Timers Off: Sun Jun  1 17:29:17 2025

Wall Time:        3.39 seconds

                                                       Time (seconds)
Module                                       User      System        Wall        Calls

--------------------------------------------------------------------------------------

**************************************************************************************

Host: MacBook-Pro-7.local

Timers On : Sun Jun  1 17:41:45 2025
Timers Off: Sun Jun  1 17:41:46 2025

Wall Time:        0.98 seconds

                                                       Time (seconds)
Module                                       User      System        Wall        Calls

--------------------------------------------------------------------------------------

**************************************************************************************

Host: MacBook-Pro-7.local

Timers On : Sun Jun  1 17:43:55 2025
Timers Off: Sun Jun  1 17:43:56 2025

Wall Time:        1.06 seconds

                                                       Time (seconds)
Module                                       User      System        Wall        Calls

--------------------------------------------------------------------------------------

**************************************************************************************
